

 Parallel Execution: Process Information
 ==============================================================================
 Rank   Node Name                              NodeID   MyNodeRank  NodeMaster
    0   nico-VirtualBox                           0          0          0
    1   nico-VirtualBox                           0          1         -1
    2   nico-VirtualBox                           0          2         -1
    3   nico-VirtualBox                           0          3         -1
    4   nico-VirtualBox                           0          4         -1
    5   nico-VirtualBox                           0          5         -1
 ==============================================================================


May use up to 3782MB of RAM as shared memory on node 0

 *******************************************************************************
 *                                                                             *
 *  --------------------------------                                           *
 *   Amsterdam Modeling Suite (AMS)              2023.101                      *
 *  --------------------------------                                           *
 *                                               r111868 2023-03-31            *
 *                                                                             *
 *                                                                             *
 *                              =================                              *
 *                              |               |                              *
 *                              |     A M S     |                              *
 *                              |               |                              *
 *                              =================                              *
 *                                                                             *
 *                                                                             *
 *   Online information and documentation:  https://www.scm.com/support/       *
 *   E-mail:  support@scm.com   info@scm.com                                   *
 *                                                                             *
 *   Scientific publications using AMS results must be properly referenced     *
 *   See the User Manuals (or the web site) for recommended citations          *
 *   The terms and conditions of the End User License Agreement apply to       *
 *   the use of AMS, https://www.scm.com/license-terms/                        *
 *                                                                             *
 ***********************  x86_64_linux_intel / openmpi  ************************
 
 Licensed to: eScience Center / Amsterdam / NL 2023-04-20 17:36:24
 SCM User ID: u17149
  
 AMS 2023.101  RunTime: Sep12-2023 17:36:39  ShM Nodes: 1  Procs: 6

 AMS jobname: h21
 AMS jobid  : 266623646

 Start   directory: /home/nico/qc2nl/qc2/examples/plams_workdir/h21/
 Results directory: /home/nico/qc2nl/qc2/examples/plams_workdir/h21/
 Scratch directory: /tmp/amstmp_h21_kid0.266623646/


 Communication costs MPI_COMM_WORLD:      1.046 usec per message,   0.0157 usec per 8-byte item
 Communication costs for intra-node:      0.804 usec per message,   0.0154 usec per 8-byte item

 RNG seed: 70586736 -1991987487 -2024690434 1153433990 -28293497 2124558759 -179738107 -885810466



                      ************************************************************************
                      *  ADF 2023.101  RunTime: Sep12-2023 17:36:40  ShM Nodes: 1  Procs: 6  *
                      ************************************************************************
  

       ****************************
       * SINGLE POINT CALCULATION *
       ****************************
 
--------
Geometry
--------
Formula: H2
Atoms
  Index Symbol   x (angstrom)   y (angstrom)   z (angstrom)
      1      H     0.00000000     0.00000000     0.36858300
      2      H     0.00000000     0.00000000    -0.36858300
 
Total System Charge             0.00000
 
 
----------------
ADF Engine Input
----------------
 
 AOMat2File
 

 Title: *** (NO TITLE) ***

 *** adf ***



 ===========================
 A T T A C H E D   F I L E S
 ===========================
  



 ===============================
 M O D E L   P A R A M E T E R S
 ===============================
  
 DENSITY FUNCTIONAL POTENTIAL (scf)
    LDA:                               VWN                                      
    Gradient Corrections:              ---                                      

 SPIN  (restricted / unrestr.)
    Molecule:                          Restricted                               
    Fragments:                         Restricted                               

 OTHER ASPECTS
    Relativistic Corrections:          scalar (ZORA,MAPA)                       

    Nuclear Charge Density Model:      Point Charge Nuclei                      
    Core Treatment:                    Frozen Orbital(s)                        

    Hyperfine or Zeeman Interaction:   ---                                      


 Fragment File(s)
 ----------------
 H:
         file : /home/nico/qc2nl/qc2/examples/plams_workdir/h21/t21.47788045.H
         jobid: 0
         title: Hydrogen (DZ)



 ===============
 G E O M E T R Y  ***  Linear Molecule  ***
 ===============
  

 ATOMS
 =====                            X Y Z                    CHARGE
                                (Angstrom)             Nucl     +Core       At.Mass
                       --------------------------    ----------------       -------
    1  H               0.0000    0.0000    0.3686      1.00      1.00        1.0078
    2  H               0.0000    0.0000   -0.3686      1.00      1.00        1.0078


 FRAGMENTS
 =========                                     Atoms in this Fragment     Cart. coord.s (Angstrom)
                                               -------------------------------------------------------
    1  H                                                 1  H            0.0000    0.0000    0.3686
    2  H                                                 2  H            0.0000    0.0000   -0.3686


 Interatomic Distance Matrix (Angstrom)
 --------------------------------------

   1)     0.000
   2)     0.737   0.000



 =====================================
 S Y M M E T R Y ,   E L E C T R O N S
 =====================================
  
 Symmetry: D(LIN)

 Irreducible Representations, including subspecies
 -------------------------------------------------
 SIGMA.g
 SIGMA.u
 PI.g:x  PI.g:y
 PI.u:x  PI.u:y
 DELTA.g:x2-y2  DELTA.g:xy
 DELTA.u:x2-y2  DELTA.u:xy
 PHI.g:x3-3xy2  PHI.g:3x2y-y3
 PHI.u:x3-3xy2  PHI.u:3x2y-y3


 Configuration of Valence Electrons
 ==================================
 ( determined in the SCF procedure )

 Total:   2

 Net Charge: 0 (Nuclei minus Electrons)

 Aufbau principle for MO occupations will be applied through SCF cycle no.     150
 Thereafter, the program will assign electrons to MOs that are spatially
 similar to the occupied MOs in a "reference" cycle ("KeepOrbitals").
 The reference cycle is always the PREVIOUS cycle: it will evolve with
 the SCF procedure.
1
 ***************************************************************************************************



                                      ****************************************
                                      *  B U I L D : (Fragments, Functions)  *
                                      ****************************************
  



 =======
 S F O s  ***  (Symmetrized Fragment Orbitals)  ***
 =======
  
 SFOs are linear combinations of (valence) Fragment Orbitals (FOs), such that the SFOs transform as the
 irreducible representations of the (molecular) symmetry group. Each SFO is therefore characterized by
 an irrep of the molecule and by a few (or only one) generating FOs.
 The SFOs constitute a symmetry-adapted basis for the Fock matrix. The MO eigenvector coefficients in
 this basis provide a direct interpretation of the MOs in terms of Frontier Orbital Theory.

 The SFOs are combined with auxiliary Core Functions (CFs) to ensure orthogonalization on the (frozen)
 Core Orbitals (COs). The Core-orthogonalized SFOs (CSFOs) constitute the true Fock basis.

 The FOs, and hence also the (C)SFOs are combinations of the elementary basis functions (BAS). The basis
 functions that participate in the description of the SFOs depend on the irrep. The indices of the
 involved functions are printed below for each irrep.
 (The complete list of primitive basis functions is printed in another section)

 Total nr. of (C)SFOs (summation over all irreps) :     4

 NOTE: a (C)SFO that is defined as a combination of more than one FO is usually NOT normalized.



                                       === SIGMA.g ===
 Nr. of SFOs :    2
 Cartesian basis functions that participate in this irrep (total number =     4) :
      1     3     2     4

    SFO  (index         Fragment          Generating    Expansion in Fragment Orbitals
  indx  incl.CFs)   Occup   Orb.Energy   FragmentType  Coeff.   Orbital     on Fragment
 --------------------------------------------------------------------------------------
     1       1      1.000      -0.234 au  H             0.71      1 S               1
                        (      -6.379 eV)               0.71      1 S               2
     2       2       --         0.403 au  H             0.71      2 S               1
                        (      10.963 eV)               0.71      2 S               2



                                       === SIGMA.u ===
 Nr. of SFOs :    2
 Cartesian basis functions that participate in this irrep (total number =     4) :
      1     3     2     4

    SFO  (index         Fragment          Generating    Expansion in Fragment Orbitals
  indx  incl.CFs)   Occup   Orb.Energy   FragmentType  Coeff.   Orbital     on Fragment
 --------------------------------------------------------------------------------------
     1       1      1.000      -0.234 au  H             0.71      1 S               1
                        (      -6.379 eV)              -0.71      1 S               2
     2       2       --         0.403 au  H             0.71      2 S               1
                        (      10.963 eV)              -0.71      2 S               2



 ================================
 (Slater-type)  F U N C T I O N S  ***  (Basis and Fit)  ***
 ================================
  

 Atom Type    1  (H)
 ==============

 Valence Basis Sets:   2
 -----------------------
   1 S    0.760000
   1 S    1.280000


 BAS: List of all Elementary Cartesian Basis Functions
 =====================================================

 The numbering in the list below (to the right of the function characteristics) is referred
 to in print-outs of MO eigenvectors and Mulliken populations in the BAS representation
 (as contrasted to the SFO representation).

 Notes:
 1. The functions are characterized by a polynomial prefactor (powers of x,y,z and r) and
    an exponential decay factor alpha.
 2. Since the basis sets are specific for an atom TYPE, the individual functions occur on
    all atoms of that type.
 3. The word 'Core' in the left margin signals that it is a Core Function (CF) : not a
    degree of freedom in the valence set, but only used to ensure orthogonalization of
    the other valence basis functions on the frozen Core Orbitals.


 (power of) X  Y  Z  R     Alpha  on Atom
            ==========     =====     ==========

 H                                    1    2
                                  ---------------------------------------------------------------------------
            0  0  0  0     0.760      1    3
            0  0  0  0     1.280      2    4

 Total number of charge fitting functions (nprimf)       100
 Total number of Cartesian basis functions (naos)          4
 Total number of Cartesian core functions  (ncos)          0

1
 ***************************************************************************************************



                                              ***********************
                                              *  T E C H N I C A L  *
                                              ***********************
  



 =============================================================
 P A R A L L E L I Z A T I O N  and  V E C T O R I Z A T I O N
 =============================================================
  
 Nr of parallel processes:                                6
 Maximum vector length in NumInt loops:                 128



 =====================
 S C F   U P D A T E S
 =====================
  
 Max. nr. of cycles:                               300
 Convergence criterion:                              0.0000010000
   secondary criterion:                              0.0010000000

 Mix parameter (when DIIS does not apply):           0.2000000000
 Mixed ADIIS+SDIIS will be used                  
    Max number of expansion vectors:                10
    Pure ADIIS when Max([F,P]) is above              0.1000000000
    Pure SDIIS when Max([F,P]) is below              0.0010000000
 Automatic ElectronSmearing (in case of problematic SCF convergence) disabled



 =================
 P R E C I S I O N  ***  (General: NumInt, NeglectFunctionTails, ...)  ***
 =================
  

 NumInt:           Target precision:                 4.0000000000
 -------           Initial precision:                4.0000000000
                   Min. precision (optimization):    4.0000000000

 Neglect Functions:          Basis functions:        0.1000000000E-05
 ------------------          Fit functions:          0.1000000000E-05



 ===========================
 L I N E A R   S C A L I N G
 ===========================
  

 Cut-off radii density fit:                        0.1000000000E-07
 Overlap cut-off criterion AO matrix elements:     0.1000000000E-05
 Cut-offs for Coulomb potential and fitted density:0.1000000000E-07
 Cut-off criterion for Coulomb multipole terms:    0.1000000000E-07
 Progressive Convergence parameter:                 0.000000000    
1
 ***************************************************************************************************



                                            ***************************
                                            *  C O M P U T A T I O N  *
                                            ***************************
  

 Number of elements of the density matrix on this node (used, total):         3        10



 ===========================================
 Numerical Integration : Fuzzy Cells (Becke)
 ===========================================
  
 Becke grid quality: NORMAL         
  
 Lebedev angular grid order:             min:  11 max:  23
 Nr. of radial points:                   min:  46 max:  46

 Total nr. of points:       5911
 Nr. of blocks:               47
 Block length:               126
 Nr. of dummy points:         11


 Test of Precision of the Numerical Integration Grid
 ===================================================

 Integral of the Total Core Density:                   0.00000000000000



 ========================
 Density Fitting (zlmFit)
 ========================
  
 ZlmFit Fit Quality: NORMAL         
  
 Max L-expansion:                        min:   4 max:   4
 Nr. of radial interpolation points:     min:  36 max:  36



 =====
 S C F  ***  ScaSCF  ***
 =====
  
 Initial density matrix is calculated as sum of fragments

 CYCLE    1
 SCF Error: norm([F,P])=      0.329897696812, max([F,P])=      0.324048793182
 orbitals (Q,E):
 ---------------
 SIGMA.g :1...2      ( 2.00    -0.5043)  ( 0.00     0.1878)
 SIGMA.u :1...2      ( 0.00    -0.0095)  ( 0.00     0.8652)

 CYCLE    2
 SCF Error: norm([F,P])=      0.099863732517, max([F,P])=      0.099863732517
 orbitals (Q,E):
 ---------------
 SIGMA.g :1...2      ( 2.00    -0.3497)  ( 0.00     0.2774)
 SIGMA.u :1...1      ( 0.00     0.0721)

 CYCLE    3
  SDIIS (wt  0.000):  0.2254  0.7746
 A-DIIS (wt  1.000):  0.0000  1.0000
  DIIS coefficients:  0.0000  1.0000
 SCF Error: norm([F,P])=      0.029052669875, max([F,P])=      0.029052669875
 orbitals (Q,E):
 ---------------
 SIGMA.g :1...2      ( 2.00    -0.3905)  ( 0.00     0.2507)
 SIGMA.u :1...1      ( 0.00     0.0497)

 CYCLE    4
  SDIIS (wt  0.925):  0.2246  0.7754
 A-DIIS (wt  0.075):  0.0000  1.0000
  DIIS coefficients:  0.2078  0.7922
 SCF Error: norm([F,P])=      0.008413888888, max([F,P])=      0.008413888888
 orbitals (Q,E):
 ---------------
 SIGMA.g :1...2      ( 2.00    -0.3810)  ( 0.00     0.2566)
 SIGMA.u :1...1      ( 0.00     0.0549)

 CYCLE    5
  SDIIS (wt  1.000):  0.0199  0.9801
  DIIS coefficients:  0.0199  0.9801
 SCF Error: norm([F,P])=      0.000171096910, max([F,P])=      0.000171096910
 orbitals (Q,E):
 ---------------
 SIGMA.g :1...2      ( 2.00    -0.3812)  ( 0.00     0.2565)
 SIGMA.u :1...1      ( 0.00     0.0548)

 CYCLE    6
  SDIIS (wt  1.000):  0.0004  0.9996
  DIIS coefficients:  0.0004  0.9996
 SCF Error: norm([F,P])=      0.000000076514, max([F,P])=      0.000000076514
 orbitals (Q,E):
 ---------------
 SIGMA.g :1...2      ( 2.00    -0.3812)  ( 0.00     0.2565)
 SIGMA.u :1...1      ( 0.00     0.0548)

 SCF CONVERGED

 CYCLE    7
1
 ***************************************************************************************************



                                                *******************
                                                *  R E S U L T S  *
                                                *******************
  
 *** Using FIT density in Focky
  SDIIS (wt  1.000): -0.0000  1.0000
  DIIS coefficients: -0.0000  1.0000
 SCF Error: norm([F,P])=      0.000000000001, max([F,P])=      0.000000000001

 Scaled ZORA Orbital Energies, per Irrep and Spin:
 =================================================
                        Occup              E (au)              E (eV)       Diff (eV) with prev. cycle
                        -----      --------------------        ------       --------------------------
 SIGMA.g
               1        2.000     -0.38117461570407E+00       -10.372               1.11E-11
               2        0.000      0.25650935209600E+00         6.980
 SIGMA.u
               1        0.000      0.54760935430901E-01         1.490
               2        0.000      0.98428091605129E+00        26.784
  
 HOMO :        1 SIGMA.g          -0.38117461570407E+00
 LUMO :        1 SIGMA.u           0.54760935430901E-01
  


 Orbital Energies, all Irreps
 ========================================

 Irrep        no.  (spin)   Occup              E (au)                E (eV)
 ---------------------------------------------------------------------------
 SIGMA.g       1             2.00       -0.38117461570407E+00       -10.3723
 SIGMA.u       1             0.00        0.54760935430901E-01         1.4901
 SIGMA.g       2             0.00        0.25650935209600E+00         6.9800
 SIGMA.u       2             0.00        0.98428091605129E+00        26.7836


 All Electron Calculation, thus no Orbital Energies of the Core Orbitals are calculated


 Fit test: (difference of exact and fit density, squared integrated, result summed over spins)
         Sum-of-Fragments:                             0.00000000000008
         Orthogonalized Fragments:                     0.00000456670825
         SCF:                                          0.00003804792724



 ==========================
 Electron Density at Nuclei
 ==========================
  
 The electron density is calculated at points on a small sphere around the center of a nucleus.
 The printed electron density is the average electron density on these points.
 The radius of the sphere is the printed approximate finite nuclear radius.
 Note: ZORA-4 density is used, which includes small component density

         Atom        Nuclear Radius (Angstrom)             Electron Density (a.u.)
         ----        -------------------------             -----------------------
     1)   H                 0.0000181514                                0.46450
     2)   H                 0.0000181514                                0.46450



 =======================================
 M U L L I K E N   P O P U L A T I O N S
 =======================================
  
 The survey below gives for each atom:
 a) the total charge (Z minus electrons)
 b) the net spin polarization (nr of electrons spin-A minus spin-B)
 c) for each spin the atomic electron valence density (integrated) per L-value.

 Atom              Charge    Spin density          S         P         D         F
 ----              ------    ------------       ------    ------    ------    ------
 1 H              -0.0000                       1.0000    0.0000    0.0000    0.0000
 2 H              -0.0000                       1.0000    0.0000    0.0000    0.0000

 Populations of individual BAS functions
 ----------------------------------------
 1 H            0.1829  0.8171
 2 H            0.1829  0.8171

 Gross Charges per Atom (Z minus electrons)
 ==========================================
            -0.0000   -0.0000
 Net Total: -0.00000000


 Atom-Atom Population Matrix (off-diagonal elements not doubled)
 ===============================================================

     1 :     0.5934
     2 :     0.4066    0.5934



 =================================================
 H I R S H F E L D   C H A R G E   A N A L Y S I S
 =================================================
  
 For each fragment: the (numerical) integral of rho(scf) * rho(fragment)/rho(sum-of-fragments)
 (nuclear charges are included, electrons are counted negative)

 The fragments and their ordering are defined in the early G E O M E T R Y output section.
 If you use single-atom fragments, this usually implies that all atoms of the same
 chemical type are grouped together. This may not be the order in which you listed them
 in the input file!

    1  H                         0.0000
    2  H                         0.0000

 Sum of these charges (accuracy NumInt/Tails) =           0.00000037



 =============================
 V O R O N O I   C H A R G E S
 =============================
  
 For each atom: the (numerical) integral of the total electronic charge density in its Voronoi cell,
 i.e. the region of space that is closer to that atom than to any other atom.
 (cf. Wigner-Seitz cells in crystals)

 Within the Voronoi cell the subintegrals over the atomic sphere and the remaining part are evaluated
 separately to give the numbers of electrons (negative charge) in these regions.
 The net total charge in the cell (including the nuclear charge) is also given.

 Values are provided for
    a) the Initial (sum-of-fragments) density
    b) the Orthogonalized-Fragments density
    c) the SCF density
    d) the Voronoi Deformation Density (VDD): the difference SCF-Initial for the complete atomic cell


  Atom                Initial                    OrthFrag                   SCF
             Sphere RestCell NetTotal   Sphere RestCell NetTotal   Sphere RestCell NetTotal      VDD
 -----       ------------------------   ------------------------   ------------------------    -----
    1 H      -0.041   -0.959    0.000   -0.058   -0.942    0.000   -0.063   -0.937    0.000    0.000
    2 H      -0.041   -0.959    0.000   -0.058   -0.942    0.000   -0.063   -0.937    0.000    0.000
 ---------------------------------------------------------------------------------------------------
 Total NetCharge:               0.000                      0.000                      0.000    0.000
 (accuracy NumInt/Tails)

 Remark: the 'NetTotal' Voronoi charges often do not match the Mulliken and/or Hirshfeld charges very
 well. This is caused by the fact that chemically different atoms are not treated in accordance with
 their relative sizes. (Voronoi cells are defined by boundary planes halfway between the atoms.)
 However, the CHANGES in charge, comparing 'Initial' to 'SCF' for instance, do give a fair indication
 of the flow of charge caused by the relaxation from sum-of-fragments to self-consistency.

 Warning: the absolute accuracy of the VDD charges obtained using the Fuzzy Cells (Becke) integration
 scheme is much poorer than the one obtained with an 'equivalent' Voronoi integration grid. 



 =================================================================
 M U L T I P O L E   D E R I V E D   C H A R G E   A N A L Y S I S
 =================================================================

 This charge analysis uses the atomic multipoles (obtained from the fitted density) up to some level X,
 and reconstructs these multipoles exactly (up to level X) by distributing charges over all atoms.
 This is achieved by using Lagrange multipliers and a weight function to keep the multipoles local.

 Dummy atoms can be included (by setting INCDUM in MDC-block to 1) to obtain a fractional charge.
 This is generally useful and necessary only for small symmetrical molecules, when there are not
 enough degrees of freedom to reconstruct the multipoles.

 Since the atomic multipoles are reconstructed up to level X,
 the molecular multipoles are represented also up to level X.
 The recommended level is to reconstruct up to quadrupole : -> MDC-q charges.

 See: M. Swart, P.Th. van Duijnen, J.G. Snijders, J.Comput.Chem., (2001), p. 79-88.

 ------------------------------------------------------------- 
 Atomic electronic multipole moments from SCF equations (a.u.)
 ------------------------------------------------------------- 

   atom        charge        dip-x     dip-y     dip-z      quad-xx   quad-xy   quad-xz   quad-yy   quad-yz   quad-zz
 --------------------------------------------------------------------------------------------------------------------
    1 H     -0.000000    -0.000000 -0.000000 -0.029862    -0.097762 -0.000000  0.000000 -0.097762  0.000000  0.195524
    2 H      0.000000     0.000000  0.000000  0.029862    -0.097762 -0.000000 -0.000000 -0.097762  0.000000  0.195524

 --------------------------------------- 
 Multipole derived atomic charges (a.u.)
 --------------------------------------- 

 The MDC-m charges are just the Monopole terms in the multipole expansion, while for the MDC-d charges
 also the Dipoles are reconstructed. The usually preferred charges are the MDC-q charges.
 These reconstruct the Monopoles, Dipoles and Quadrupoles (both atomic AND molecular).

        Atom    Level:     MDC-m        MDC-d        MDC-q
 ---------------------------------------------------------
     1     H           -0.000000    -0.000000    -0.000000
     2     H            0.000000     0.000000     0.000000

 ------------------------------------------------ 
 Average absolute deviations in atomic multipoles
 ------------------------------------------------ 

 Stated here are the average differences between the atomic multipoles
 and the reconstructed atomic multipoles (from the distributed charges).
 If these values are not zero, this means there are not enough degrees of freedom,
 to be able to reconstruct the atomic multipoles. (This usually happens only
 for small and/or highly symmetric molecules). If this is the case, one could add
 dummy atoms as extra point charges (and setting INCDUM in MDC-block to 1).

 Level:                                 MDC-d        MDC-q
 ---------------------------------------------------------
 Charge   (a.u.)                       0.0000       0.0000
 Dipole   (Debye)                      0.0000       0.0697
 Quad.    (a.u.)                       0.0513       0.0131

 --------------------------------------- 
 Represented molecular multipole moments
 --------------------------------------- 

 Given here are the Molecular multipole moments from the atomic charges, and from the Fit Density.
 Note that the atomic charges represent the latter, NOT the ones from the Exact density.

            Q (a.u.)             Dipole moment (Debye)                                          Quadrupole moment (a.u.)
                                 x         y         z              xx        xy        xz        yy        yz        zz
------------------------------------------------------------------------------------------------------------------------
MDC-m        -0.0000        0.0000    0.0000   -0.0000          0.0000    0.0000    0.0000    0.0000    0.0000   -0.0000
MDC-d        -0.0000        0.0000    0.0000   -0.0000          0.0000    0.0000    0.0000    0.0000    0.0000   -0.0000
MDC-q        -0.0000        0.0000    0.0000   -0.0000          0.0000    0.0000    0.0000    0.0000    0.0000   -0.0000
 
Fit.Dens.    -0.0000        0.0000    0.0000   -0.0000         -0.1539   -0.0000   -0.0000   -0.1539   -0.0000    0.3079



 =============
 Dipole Moment  ***  (Debye)  ***
 =============
  
 Vector   :         0.00000000      0.00000000     -0.00000000
 Magnitude:         0.00000000

 This molecular dipole moment is calculated with analytic integration



 =========================================
 Quadrupole Moment (Buckingham convention)  ***  (a.u.)  ***
 =========================================
  
      quad-xx        quad-xy        quad-xz        quad-yy        quad-yz        quad-zz
     -0.15414817     0.00000000     0.00000000    -0.15414817     0.00000000     0.30829635

 This molecular quadrupole moment is calculated with analytic integration
1



 ===========================
 B O N D I N G   E N E R G Y  ***  (decomposition)  ***
 ===========================
  
*** IMPORTANT NOTE ***

The bond energy is computed as an energy difference between molecule and
fragments. In particular when the fragments are single atoms, they are usually
computed as SPHERICALLY SYMMETRIC and SPIN-RESTRICTED. Obviously, this usually
does NOT represent the true atomic groundstate.

To obtain the 'real' bond energy, (atomic) correction terms must be applied
for the true (multiplet) fragment ground state. See ref: E.J.Baerends,
V.Branchadell, M.Sodupe, Chem.Phys.Lett.265 (1997) 481

General theoretical background on the bond energy decomposition scheme used
here (Morokuma-Ziegler) can be found in the review paper:
F.M. Bickelhaupt and E.J. Baerends,
"Kohn-Sham Density Functional Theory: Predicting and Understanding Chemistry"
In: Rev. Comput. Chem.; Lipkowitz, K. B. and Boyd, D. B., Eds.;
Wiley-VCH: New York, 2000, Vol. 15, 1-86.

Symbols used in the Bickelhaupt-Baerends (BB) paper are given below to make
the direct connection to that paper, where detailed explanations can be found
on the meaning of the various terms.


                                                   hartree              eV         kcal/mol           kJ/mol
                                      --------------------     -----------       ----------      -----------

Pauli Repulsion
  Kinetic (Delta T^0):                   0.598032114521883         16.2733           375.27          1570.13
  Delta V^Pauli Coulomb:                -0.128143703131095         -3.4870           -80.41          -336.44
  Delta V^Pauli LDA-XC:                 -0.096119672176879         -2.6155           -60.32          -252.36
                                      --------------------     -----------       ----------      -----------
  Total Pauli Repulsion:                 0.373768739213909         10.1708           234.54           981.33
 (Total Pauli Repulsion =
  Delta E^Pauli in BB paper)

Steric Interaction
  Pauli Repulsion (Delta E^Pauli):       0.373768739213909         10.1708           234.54           981.33
  Electrostatic Interaction:             0.018016037271180          0.4902            11.31            47.30
 (Electrostatic Interaction =
  Delta V_elstat in the BB paper)
                                      --------------------     -----------       ----------      -----------
  Total Steric Interaction:              0.391784776485089         10.6610           245.85          1028.63
 (Total Steric Interaction =
  Delta E^0 in the BB paper)

Orbital Interactions
  SIGMA.g:                              -0.477658668988304        -12.9978          -299.74         -1254.09
  SIGMA.u:                              -0.157015852749806         -4.2726           -98.53          -412.25
                                      --------------------     -----------       ----------      -----------
  Total Orbital Interactions:           -0.634674521738110        -17.2704          -398.26         -1666.34

Alternative Decomposition Orb.Int.
  Kinetic:                              -0.335335578851287         -9.1249          -210.43          -880.42
  Coulomb:                              -0.207816231818916         -5.6550          -130.41          -545.62
  XC:                                   -0.091522711067906         -2.4905           -57.43          -240.29
                                      --------------------     -----------       ----------      -----------
  Total Orbital Interactions:           -0.634674521738110        -17.2704          -398.26         -1666.34

  Residu (E=Steric+OrbInt+Res):         -0.000002023137282         -0.0001            -0.00            -0.01

Total Bonding Energy:                   -0.242891768390303         -6.6094          -152.42          -637.71


Summary of Bonding Energy (energy terms are taken from the energy decomposition above)
======================================================================================

  Electrostatic Energy:                  0.018016037271180          0.4902            11.31            47.30
  Kinetic Energy:                        0.262696535670596          7.1483           164.84           689.71
  Coulomb (Steric+OrbInt) Energy:       -0.335961958087293         -9.1420          -210.82          -882.07
  XC Energy:                            -0.187642383244786         -5.1060          -117.75          -492.66
                                      --------------------     -----------       ----------      -----------
  Total Bonding Energy:                 -0.242891768390303         -6.6094          -152.42          -637.71


Correction terms (incorporated in energies above; only for test purposes):

1. Indication of fit-quality: 1st-order fit-correction used in the energy (hartree):   0.0000168712
2. Electrostatic (Fit correction):   0.0000000000

Scaled ZORA energy correction, not included in bonding energy (hartree):            0.0000040708
 NOTE: This scaled ZORA energy correction should only be used to compare two calculations
 in which the only difference in the calculation is the electron configuration.
 Then the difference in energy of this term should be added to the difference in energy of
 the two electron configurations.
 This term should not be used otherwise.
 In practice it is useful only for core excitation energy calculations.



 =========================================
 F R A G M E N T   E N E R G Y   T E R M S  ***  (summed over all fragments)  ***
 =========================================
  

The energy terms below are (parts of) the Total Energy of the fragments from which the molecule
 is built.

Exchange and Correlation
  Exchange LDA:                         -0.384806963872527        -10.4711          -241.47         -1010.31
  Exchange GGA:                          0.000000000000000          0.0000             0.00             0.00
  Correlation LDA:                      -0.078608275794632         -2.1390           -49.33          -206.39
  Correlation GGA:                       0.000000000000000          0.0000             0.00             0.00
                                      --------------------     -----------       ----------      -----------
  Total XC:                             -0.463415239667160        -12.6102          -290.80         -1216.70
1



 =======================================================
 S F O   P O P U L A T I O N S ,   M O   A N A L Y S I S
 =======================================================
  
 A Mulliken population analysis is performed on (input-)selected MOs. All populations refer to SFOs.
 BAS populations may have been printed directly after the SCF part.


                                       === SIGMA.g ===


 SFO contributions (%) per orbital
 (multiplication by the orbital occupation yields the SFO Gross Populations)

 Orb.:        1      2
 occup:     2.00   0.00
 CF+SFO     ----   ----
 ------
      1:   98.22   1.78
      2:    1.78  98.22


 Summation over all MOs, multiplied by occupation: Total SFO Gross Populations in this Irrep
 ===========================================================================================

     1.96    0.04


                                       === SIGMA.u ===


 SFO contributions (%) per orbital
 (multiplication by the orbital occupation yields the SFO Gross Populations)

 Orb.:        1      2
 occup:     0.00   0.00
 CF+SFO     ----   ----
 ------
      1:  119.25 -19.25
      2:  -19.25 119.25


 Summation over all MOs, multiplied by occupation: Total SFO Gross Populations in this Irrep
 ===========================================================================================

     0.00    0.00



 List of selected MOs, ordered by energy, with the most significant SFO gross populations
 ========================================================================================

 Each percentage contribution in the table below corres ponds to the indicated SFO.
 In general, a SFO may be a linear combination of several Fragment Orbitals on the same,
 or on symmetry-related Fragments. Only the first 'member' of such a combination is
 specified here. A full definition of all SFOs is given in an earlier part of the output.
 The numbering of the SFOs in this table does NOT include the Core Orbitals, and starts
 from one for each symmetry representation, as in the SFO definition list earlier.

       E(eV)  Occ       MO           %     SFO (first member)   E(eV)  Occ   Fragment
 -------------------------------------------------------------------------------------

     -10.372  2.00     1 SIGMA.g   98.22%     1 S              -6.379  1.00     1 H
                                    1.78%     2 S              10.963  0.00     1 H
       1.490  0.00     1 SIGMA.u  119.25%     1 S              -6.379  1.00     1 H
                                  -19.25%     2 S              10.963  0.00     1 H



 =======================================================================
 Electrostatic potential at the Nuclei due to electrons and other nuclei
 =======================================================================
  
         Atom                  Potential
         ----                  ---------
     1)   H                   1.08146592
     2)   H                   1.08146592
 Mulliken charges used for AMS results%charges...


    =====================
     CALCULATION RESULTS
    =====================

Energy (hartree)            -0.24289177


--------------
Atomic charges
--------------
  Index   Atom    Charge
      1      H   -0.0000
      2      H   -0.0000


Dipole moment vector    (Debye):     0.00000000    0.00000000   -0.00000000
              magnitude (Debye):     0.00000000


-----------------------
Molecular orbitals info
-----------------------
n orbitals:                4
n spin:                    1

HOMO (eV):             -10.3723
LUMO (eV):               1.4901
HOMO-LUMO gap (eV):     11.8624

   Index   Energy (eV)    Occupation
       4       26.7836         0.000       
       3        6.9800         0.000       
       2        1.4901         0.000 < LUMO
       1      -10.3723         2.000 < HOMO

AMS application finished. Exiting.
NORMAL TERMINATION
     Total cpu time:       1.89
  Total system time:       0.56
 Total elapsed time:       2.80
