
Host: nico-VirtualBox

Timers On : Wed Jun  7 16:58:57 2023
Timers Off: Wed Jun  7 16:59:02 2023

Wall Time:        5.33 seconds

                                                       Time (seconds)
Module                                       User      System        Wall        Calls

--------------------------------------------------------------------------------------

**************************************************************************************
