
Host: Carloss-MacBook-Pro.local

Timers On : Sat Nov 18 16:58:38 2023
Timers Off: Sat Nov 18 16:58:39 2023

Wall Time:        1.21 seconds

                                                       Time (seconds)
Module                                       User      System        Wall        Calls

--------------------------------------------------------------------------------------

**************************************************************************************

Host: Carloss-MacBook-Pro.local

Timers On : Sat Nov 18 17:03:28 2023
Timers Off: Sat Nov 18 17:03:30 2023

Wall Time:        1.09 seconds

                                                       Time (seconds)
Module                                       User      System        Wall        Calls

--------------------------------------------------------------------------------------

**************************************************************************************

Host: Carloss-MacBook-Pro.local

Timers On : Sat Nov 18 17:09:03 2023
Timers Off: Sat Nov 18 17:09:04 2023

Wall Time:        0.90 seconds

                                                       Time (seconds)
Module                                       User      System        Wall        Calls

--------------------------------------------------------------------------------------

**************************************************************************************

Host: Carloss-MacBook-Pro.local

Timers On : Sat Nov 18 17:14:11 2023
Timers Off: Sat Nov 18 17:14:12 2023

Wall Time:        1.04 seconds

                                                       Time (seconds)
Module                                       User      System        Wall        Calls

--------------------------------------------------------------------------------------

**************************************************************************************

Host: Carloss-MacBook-Pro.local

Timers On : Sat Nov 18 17:15:02 2023
Timers Off: Sat Nov 18 17:15:03 2023

Wall Time:        1.00 seconds

                                                       Time (seconds)
Module                                       User      System        Wall        Calls

--------------------------------------------------------------------------------------

**************************************************************************************

Host: Carloss-MacBook-Pro.local

Timers On : Sat Nov 18 17:16:34 2023
Timers Off: Sat Nov 18 17:16:35 2023

Wall Time:        0.97 seconds

                                                       Time (seconds)
Module                                       User      System        Wall        Calls

--------------------------------------------------------------------------------------

**************************************************************************************
