 &FCI NORB=   7,NELEC=10,MS2=0,
  ORBSYM=1,1,1,1,1,1,1,
  ISYM=1,
 &END
 4.744698428255589    1    1    1    1
 -0.4173800898849749    1    1    2    1
 1.005211918627974    1    1    2    2
 0.7971148584938952    1    1    3    3
 -0.1830679567998199    1    1    4    1
 0.130754858691689    1    1    4    2
 0.9947114361358252    1    1    4    4
 1.115338088402926    1    1    5    5
 -0.2346877760095911    1    1    6    1
 0.30543585775031    1    1    6    2
 4.726024601377654e-15    1    1    6    3
 -0.2236262384530499    1    1    6    4
 0.8020591161419615    1    1    6    6
 2.976643454955794e-15    1    1    7    1
 -3.98692439944696e-15    1    1    7    2
 0.3627647940282157    1    1    7    3
 3.435283698092149e-15    1    1    7    4
 1.039242552257026e-15    1    1    7    6
 0.8659055774540975    1    1    7    7
 -0.4173800898849748    2    1    1    1
 0.05834680472960324    2    1    2    1
 -0.01312418976546786    2    1    2    2
 -0.004422553508655404    2    1    3    3
 0.02255701847485418    2    1    4    1
 -0.009156616358056129    2    1    4    2
 -0.01338768068157953    2    1    4    4
 -0.01172118955502109    2    1    5    5
 0.03533880821525175    2    1    6    1
 -0.006584282554693813    2    1    6    2
 0.002357929587235159    2    1    6    4
 -0.007021043708700108    2    1    6    6
 -0.007453552241065664    2    1    7    3
 -0.009328489006372984    2    1    7    7
 1.005211918627974    2    2    1    1
 -0.01312418976546779    2    2    2    1
 0.7274142267697927    2    2    2    2
 0.6429787755935467    2    2    3    3
 -0.01581145753791579    2    2    4    1
 -0.001937507883311025    2    2    4    2
 0.6744466538693471    2    2    4    4
 0.7476529642842835    2    2    5    5
 -0.0008116642009733586    2    2    6    1
 0.1423338611984037    2    2    6    2
 1.874622761332095e-15    2    2    6    3
 -0.0975489339361103    2    2    6    4
 0.6130641206798805    2    2    6    6
 -1.860333340944105e-15    2    2    7    2
 0.139864916846656    2    2    7    3
 1.507623202421969e-15    2    2    7    4
 0.6228599325576138    2    2    7    7
 0.01096638381197315    3    1    3    1
 0.01768533985739102    3    1    3    2
 0.003390295389880094    3    1    4    3
 0.003128874185460523    3    1    6    3
 0.01522083247995656    3    1    7    1
 0.01394178936836743    3    1    7    2
 0.009556726148861718    3    1    7    4
 0.009063549750067202    3    1    7    6
 0.01768533985739102    3    2    3    1
 0.1434022388961857    3    2    3    2
 -0.020653130827691    3    2    4    3
 -0.03966819361021801    3    2    6    3
 2.359223927328458e-15    3    2    6    6
 0.02295772851133175    3    2    7    1
 0.04133626522915197    3    2    7    2
 0.07706053589022094    3    2    7    4
 0.09758762344445376    3    2    7    6
 -2.420311745942674e-15    3    2    7    7
 0.7971148584938954    3    3    1    1
 -0.004422553508655427    3    3    2    1
 0.6429787755935465    3    3    2    2
 0.6300490242657311    3    3    3    3
 -0.006421689899582074    3    3    4    1
 -0.006680137095364178    3    3    4    2
 0.5959678274707182    3    3    4    4
 0.6268924370427442    3    3    5    5
 0.000264352488272675    3    3    6    1
 0.07534780032194534    3    3    6    2
 -0.0437399206924813    3    3    6    4
 0.5701014568339131    3    3    6    6
 -1.041544986443162e-15    3    3    7    2
 0.09015588138839574    3    3    7    3
 1.012372280134503e-15    3    3    7    6
 0.6085814834244399    3    3    7    7
 -0.1830679567998199    4    1    1    1
 0.02255701847485417    4    1    2    1
 -0.01581145753791581    4    1    2    2
 -0.006421689899582066    4    1    3    3
 0.02754473282303478    4    1    4    1
 0.01880674307530213    4    1    4    2
 0.01114155094337521    4    1    4    4
 -0.00510762646415062    4    1    5    5
 0.0003125904042156597    4    1    6    1
 -0.01865732304495988    4    1    6    2
 0.002148624895279769    4    1    6    4
 -0.02096235905566961    4    1    6    6
 0.0007722856267565306    4    1    7    3
 -0.004158409575623882    4    1    7    7
 0.130754858691689    4    2    1    1
 -0.009156616358056128    4    2    2    1
 -0.001937507883311085    4    2    2    2
 -0.006680137095364193    4    2    3    3
 0.01880674307530213    4    2    4    1
 0.124643697224529    4    2    4    2
 0.1040484405315456    4    2    4    4
 0.07007691066832675    4    2    5    5
 -0.02043036203681521    4    2    6    1
 -0.02153677097332169    4    2    6    2
 -0.03340173017582188    4    2    6    4
 -0.05776037337336443    4    2    6    6
 0.07678080123189165    4    2    7    3
 1.132761358388435e-15    4    2    7    6
 0.01412779594662391    4    2    7    7
 0.003390295389880095    4    3    3    1
 -0.02065313082769101    4    3    3    2
 0.04785847085727167    4    3    4    3
 0.02928096801404891    4    3    6    3
 0.004865900400129321    4    3    7    1
 0.0340425504096615    4    3    7    2
 0.001043475871892901    4    3    7    4
 -0.04885190310188161    4    3    7    6
 1.378858320651364e-15    4    3    7    7
 0.9947114361358252    4    4    1    1
 -0.01338768068157958    4    4    2    1
 0.6744466538693472    4    4    2    2
 0.5959678274707182    4    4    3    3
 0.0111415509433752    4    4    4    1
 0.1040484405315456    4    4    4    2
 0.776250718002001    4    4    4    4
 0.72603769029583    4    4    5    5
 -0.01903694130754921    4    4    6    1
 0.08601370940944374    4    4    6    2
 2.219173784428885e-15    4    4    6    3
 -0.122908896163447    4    4    6    4
 0.5491094735745692    4    4    6    6
 -1.09205439483306e-15    4    4    7    2
 0.1585407260120995    4    4    7    3
 1.811274839127077e-15    4    4    7    4
 0.6058183134590617    4    4    7    7
 0.02603770448607255    5    1    5    1
 0.03250568804743784    5    1    5    2
 0.01339382601636879    5    1    5    4
 0.01552920881207076    5    1    6    5
 0.03250568804743786    5    2    5    1
 0.1448063051627463    5    2    5    2
 0.04691239073790707    5    2    5    4
 0.05849179842859497    5    2    6    5
 0.02861121519359743    5    3    5    3
 0.02370319498932774    5    3    7    5
 0.0133938260163688    5    4    5    1
 0.04691239073790707    5    4    5    2
 0.05544992801454116    5    4    5    4
 0.001182112689947951    5    4    6    5
 1.115338088402926    5    5    1    1
 -0.01172118955502109    5    5    2    1
 0.7476529642842835    5    5    2    2
 0.6268924370427442    5    5    3    3
 -0.00510762646415062    5    5    4    1
 0.07007691066832675    5    5    4    2
 0.72603769029583    5    5    4    4
 0.8801590933750454    5    5    5    5
 -0.006139588729933708    5    5    6    1
 0.1574620522598051    5    5    6    2
 2.499497671752263e-15    5    5    6    3
 -0.1190229456943399    5    5    6    4
 0.5885473317517984    5    5    6    6
 -2.092792506767341e-15    5    5    7    2
 0.1906630638921221    5    5    7    3
 1.822369306076759e-15    5    5    7    4
 0.6235489186871664    5    5    7    7
 -0.234687776009591    6    1    1    1
 0.03533880821525175    6    1    2    1
 -0.0008116642009733829    6    1    2    2
 0.0002643524882726814    6    1    3    3
 0.0003125904042156546    6    1    4    1
 -0.0204303620368152    6    1    4    2
 -0.01903694130754919    6    1    4    4
 -0.006139588729933708    6    1    5    5
 0.03090741846190536    6    1    6    1
 0.007128108042395282    6    1    6    2
 0.0004908078818928784    6    1    6    4
 0.008522249681544523    6    1    6    6
 -0.006898943250865052    6    1    7    3
 -0.004977251286559552    6    1    7    7
 0.3054358577503101    6    2    1    1
 -0.006584282554693825    6    2    2    1
 0.1423338611984037    6    2    2    2
 0.07534780032194541    6    2    3    3
 -0.01865732304495988    6    2    4    1
 -0.02153677097332168    6    2    4    2
 0.08601370940944369    6    2    4    4
 0.1574620522598051    6    2    5    5
 0.00712810804239527    6    2    6    1
 0.1014658443224217    6    2    6    2
 1.38108171674527e-15    6    2    6    3
 -0.06100510303506532    6    2    6    4
 0.09685442120599452    6    2    6    6
 0.07617601003918831    6    2    7    3
 1.166921245223648e-15    6    2    7    4
 0.0684353714736201    6    2    7    7
 4.756777682360503e-15    6    3    1    1
 1.905766064502231e-15    6    3    2    2
 0.003128874185460522    6    3    3    1
 -0.03966819361021803    6    3    3    2
 0.0292809680140489    6    3    4    3
 2.159314262171437e-15    6    3    4    4
 2.499497671752263e-15    6    3    5    5
 1.380733382378887e-15    6    3    6    2
 0.07099504532632855    6    3    6    3
 -1.50460076806025e-15    6    3    6    4
 0.003815194075778959    6    3    7    1
 0.03502923953006593    6    3    7    2
 1.31056422893484e-15    6    3    7    3
 -0.04519055471751664    6    3    7    4
 -0.06440089752420793    6    3    7    6
 2.643502111949766e-15    6    3    7    7
 -0.22362623845305    6    4    1    1
 0.002357929587235162    6    4    2    1
 -0.09754893393611022    6    4    2    2
 -0.04373992069248119    6    4    3    3
 0.002148624895279766    6    4    4    1
 -0.03340173017582188    6    4    4    2
 -0.1229088961634472    6    4    4    4
 -0.1190229456943399    6    4    5    5
 0.0004908078818928661    6    4    6    1
 -0.06100510303506529    6    4    6    2
 -1.5110874749874e-15    6    4    6    3
 0.07102576468992358    6    4    6    4
 -0.04517978742721714    6    4    6    6
 1.041899424686345e-15    6    4    7    2
 -0.08045972980088287    6    4    7    3
 -0.04222698765049297    6    4    7    7
 0.01552920881207076    6    5    5    1
 0.05849179842859495    6    5    5    2
 0.001182112689947947    6    5    5    4
 0.03825303155527219    6    5    6    5
 0.8020591161419617    6    6    1    1
 -0.007021043708700193    6    6    2    1
 0.6130641206798806    6    6    2    2
 2.319103531592936e-15    6    6    3    2
 0.5701014568339131    6    6    3    3
 -0.02096235905566966    6    6    4    1
 -0.0577603733733644    6    6    4    2
 0.5491094735745692    6    6    4    4
 0.5885473317517984    6    6    5    5
 0.008522249681544478    6    6    6    1
 0.09685442120599447    6    6    6    2
 -1.039338212365214e-15    6    6    6    3
 -0.04517978742721719    6    6    6    4
 0.5966610907790943    6    6    6    6
 -1.329381794514036e-15    6    6    7    2
 0.03842653043551733    6    6    7    3
 2.126116211578244e-15    6    6    7    4
 2.499757670480458e-15    6    6    7    6
 0.5653753395057999    6    6    7    7
 2.989525209067766e-15    7    1    1    1
 0.01522083247995656    7    1    3    1
 0.02295772851133175    7    1    3    2
 0.004865900400129318    7    1    4    3
 0.003815194075778952    7    1    6    3
 0.0211805461973524    7    1    7    1
 0.01833876108410011    7    1    7    2
 0.01306260713334157    7    1    7    4
 0.01198082551450465    7    1    7    6
 -3.957135075373689e-15    7    2    1    1
 -1.862307671640528e-15    7    2    2    2
 0.01394178936836742    7    2    3    1
 0.04133626522915197    7    2    3    2
 -1.096529635692957e-15    7    2    3    3
 0.03404255040966149    7    2    4    3
 -1.072357038599082e-15    7    2    4    4
 -2.092792506767341e-15    7    2    5    5
 0.03502923953006594    7    2    6    3
 1.090793684872875e-15    7    2    6    4
 -1.380839886877538e-15    7    2    6    6
 0.01833876108410011    7    2    7    1
 0.06233956496575843    7    2    7    2
 -1.469011925555116e-15    7    2    7    3
 0.01668871234811934    7    2    7    4
 -0.009651918573160962    7    2    7    6
 0.3627647940282159    7    3    1    1
 -0.007453552241065657    7    3    2    1
 0.139864916846656    7    3    2    2
 0.09015588138839581    7    3    3    3
 0.0007722856267565363    7    3    4    1
 0.0767808012318917    7    3    4    2
 0.1585407260120995    7    3    4    4
 0.1906630638921221    7    3    5    5
 -0.006898943250865034    7    3    6    1
 0.07617601003918822    7    3    6    2
 1.333575762785901e-15    7    3    6    3
 -0.08045972980088284    7    3    6    4
 0.03842653043551716    7    3    6    6
 -1.470272112058886e-15    7    3    7    2
 0.1531342769573288    7    3    7    3
 1.605963804031422e-15    7    3    7    4
 1.329681747387304e-15    7    3    7    6
 0.09297442082413898    7    3    7    7
 3.402517655250331e-15    7    4    1    1
 1.432301422816727e-15    7    4    2    2
 0.009556726148861716    7    4    3    1
 0.07706053589022095    7    4    3    2
 0.001043475871892896    7    4    4    3
 1.842538956298611e-15    7    4    4    4
 1.822369306076759e-15    7    4    5    5
 1.187635067667015e-15    7    4    6    2
 -0.04519055471751665    7    4    6    3
 2.10248485288389e-15    7    4    6    6
 0.01306260713334157    7    4    7    1
 0.01668871234811935    7    4    7    2
 1.596550730101968e-15    7    4    7    3
 0.06931016714204308    7    4    7    4
 0.05820341909693198    7    4    7    6
 0.02370319498932775    7    5    5    3
 0.02438276319881277    7    5    7    5
 0.009063549750067196    7    6    3    1
 0.09758762344445379    7    6    3    2
 1.155543029009099e-15    7    6    4    2
 -0.04885190310188162    7    6    4    3
 -0.06440089752420791    7    6    6    3
 2.484124017598788e-15    7    6    6    6
 0.01198082551450465    7    6    7    1
 -0.009651918573160959    7    6    7    2
 1.285177308318022e-15    7    6    7    3
 0.05820341909693201    7    6    7    4
 0.1149396839665055    7    6    7    6
 -2.122504449790089e-15    7    6    7    7
 0.865905577454098    7    7    1    1
 -0.00932848900637304    7    7    2    1
 0.6228599325576137    7    7    2    2
 -2.433689664490643e-15    7    7    3    2
 0.6085814834244399    7    7    3    3
 -0.004158409575623899    7    7    4    1
 0.01412779594662391    7    7    4    2
 1.356429832736049e-15    7    7    4    3
 0.6058183134590617    7    7    4    4
 0.6235489186871664    7    7    5    5
 -0.004977251286559568    7    7    6    1
 0.06843537147361987    7    7    6    2
 2.673457986549916e-15    7    7    6    3
 -0.0422269876504929    7    7    6    4
 0.5653753395057999    7    7    6    6
 0.09297442082413901    7    7    7    3
 -1.887860971723163e-15    7    7    7    6
 0.6176064918309256    7    7    7    7
 -32.69038980018359    1    1  0  0
 0.558564907145099    2    1  0  0
 -7.660069487200803    2    2  0  0
 -6.336245047052337    3    3  0  0
 0.2342354719415106    4    1  0  0
 -0.441598019306559    4    2  0  0
 -2.674927870644794e-15    4    3  0  0
 -6.955953966504967    4    4  0  0
 -2.407584107233417e-15    5    2  0  0
 1.294829972484383e-15    5    4  0  0
 -7.448014560193811    5    5  0  0
 0.3003578831714497    6    1  0  0
 -1.37009214945238    6    2  0  0
 -2.331517923889637e-14    6    3  0  0
 1.100023238319839    6    4  0  0
 3.540306323824652e-15    6    5  0  0
 -5.337766699268865    6    6  0  0
 -3.904053239564482e-15    7    1  0  0
 1.835361839136505e-14    7    2  0  0
 -1.712519470075947    7    3  0  0
 -1.667846252211861e-14    7    4  0  0
 -4.642697875102527e-15    7    6  0  0
 -5.595588929631107    7    7  0  0
 9.088293769139284  0  0  0  0
